# vtk DataFile Version 2.0
Unstructured Grid
ASCII
DATASET UNSTRUCTURED_GRID
POINTS 27 double
0 0 0
1 0 0
2 0 0
0 1 0
0 2 0
1 1 0
1 2 0
2 1 0
2 2 0
0 0 1
1 0 1
2 0 1
0 1 1
0 2 1
1 1 1
1 2 1
2 1 1
2 2 1
0 0 2
1 0 2
2 0 2
0 1 2
0 2 2
1 1 2
1 2 2
2 1 2
2 2 2

CELLS 48 240
4    21    9   12   23
4    25   10   14   16
4    25   23   26   14
4     9   12   23   14
4    10   16   11    1
4    26   15   17   14
4    12   13   24   15
4    13   22   12   24
4    16    2   11    1
4    21   12   24   23
4    25   10   16   11
4     3   13   12   15
4     0    3   14    5
4    22   21   12   24
4    18   19    9   23
4    21   18    9   23
4    23   25   10   14
4    24   12   15   14
4    12   24   23   14
4    17   26   14   16
4    20   19   25   10
4    26   25   14   16
4    10    0   14    1
4     9   23   10   14
4    12    3   15   14
4    13    3    4   15
4     4    3    6   15
4     0    3   12   14
4    19   23   25   10
4    25   20   10   11
4    14    0    5    1
4    19    9   23   10
4    16   14    5    1
4    10   14   16    1
4    16    7    2    1
4     7   16    5    1
4     0    9   10   14
4     9    0   12   14
4    23   24   26   14
4    26   24   15   14
4     3    6   15    5
4     3   15   14    5
4     6    8   17    5
4    17    8    7    5
4    17    7   16    5
4    14   17   16    5
4    15    6   17    5
4    15   17   14    5

CELL_TYPES 48
10
10
10
10
10
10
10
10
10
10
10
10
10
10
10
10
10
10
10
10
10
10
10
10
10
10
10
10
10
10
10
10
10
10
10
10
10
10
10
10
10
10
10
10
10
10
10
10


POINT_DATA 27
SCALARS mat1 float
LOOKUP_TABLE default
0
1
2
3
4
5
6
7
8
9
10
11
12
13
14
15
16
17
18
19
20
21
22
23
24
25
26
SCALARS mat2 float
LOOKUP_TABLE default
0
10
20
30
40
50
60
70
80
90
100
110
120
130
140
150
160
170
180
190
200
210
220
230
240
250
260
SCALARS mat3 float
LOOKUP_TABLE default
0
100
200
300
400
500
600
700
800
900
1000
1100
1200
1300
1400
1500
1600
1700
1800
1900
2000
2100
2200
2300
2400
2500
2600
SCALARS mat4 float
LOOKUP_TABLE default
0
1000
2000
3000
4000
5000
6000
7000
8000
9000
10000
11000
12000
13000
14000
15000
16000
17000
18000
19000
20000
21000
22000
23000
24000
25000
26000
SCALARS mat5 float
LOOKUP_TABLE default
0
10000
20000
30000
40000
50000
60000
70000
80000
90000
100000
110000
120000
130000
140000
150000
160000
170000
180000
190000
200000
210000
220000
230000
240000
250000
260000
