# vtk DataFile Version 2.0
Unstructured Grid
ASCII
DATASET UNSTRUCTURED_GRID
POINTS 27 double
0 0 0
1 0 0
2 0 0
0 1 0
0 2 0
1 1 0
1 2 0
2 1 0
2 2 0
0 0 1
1 0 1
2 0 1
0 1 1
0 2 1
1 1 1
1 2 1
2 1 1
2 2 1
0 0 2
1 0 2
2 0 2
0 1 2
0 2 2
1 1 2
1 2 2
2 1 2
2 2 2

CELLS 48 240
4    21    9   12   23
4    25   10   14   16
4    25   23   26   14
4     9   12   23   14
4    10   16   11    1
4    26   15   17   14
4    12   13   24   15
4    13   22   12   24
4    16    2   11    1
4    21   12   24   23
4    25   10   16   11
4     3   13   12   15
4     0    3   14    5
4    22   21   12   24
4    18   19    9   23
4    21   18    9   23
4    23   25   10   14
4    24   12   15   14
4    12   24   23   14
4    17   26   14   16
4    20   19   25   10
4    26   25   14   16
4    10    0   14    1
4     9   23   10   14
4    12    3   15   14
4    13    3    4   15
4     4    3    6   15
4     0    3   12   14
4    19   23   25   10
4    25   20   10   11
4    14    0    5    1
4    19    9   23   10
4    16   14    5    1
4    10   14   16    1
4    16    7    2    1
4     7   16    5    1
4     0    9   10   14
4     9    0   12   14
4    23   24   26   14
4    26   24   15   14
4     3    6   15    5
4     3   15   14    5
4     6    8   17    5
4    17    8    7    5
4    17    7   16    5
4    14   17   16    5
4    15    6   17    5
4    15   17   14    5

CELL_TYPES 48
10
10
10
10
10
10
10
10
10
10
10
10
10
10
10
10
10
10
10
10
10
10
10
10
10
10
10
10
10
10
10
10
10
10
10
10
10
10
10
10
10
10
10
10
10
10
10
10


POINT_DATA 27
SCALARS permeability float
LOOKUP_TABLE default
1.0e-14
2.0e-14
3.0e-14
4.0e-14
5.0e-14
6.0e-14
7.0e-14
8.0e-14
9.0e-14
1.0e-13
2.0e-13
3.0e-13
4.0e-13
5.0e-13
6.0e-13
7.0e-13
8.0e-13
9.0e-13
1.0e-12
2.0e-12
3.0e-12
4.0e-12
5.0e-12
6.0e-12
7.0e-12
8.0e-12
9.0e-12
SCALARS porosity float
LOOKUP_TABLE default
0.10
0.11
0.12
0.13
0.14
0.15
0.16
0.17
0.18
0.19
0.20
0.21
0.22
0.23
0.24
0.25
0.26
0.27
0.28
0.29
0.30
0.31
0.32
0.33
0.34
0.35
0.36
SCALARS rock_density float
LOOKUP_TABLE default
2500
2600
2700
2800
2900
3000
3100
3200
3300
3400
3500
3600
3700
3800
3900
4000
4100
4200
4300
4400
4500
4600
4700
4800
4900
5000
5100
SCALARS rock_specific_heat float
LOOKUP_TABLE default
920.0
920.1
920.2
920.3
920.4
920.5
920.6
920.7
920.8
920.9
921.0
921.1
921.2
921.3
921.4
921.5
921.6
921.7
921.8
921.9
922.0
922.1
922.2
922.3
922.4
922.5
922.6
SCALARS thermal_conductivity float
LOOKUP_TABLE default
2.0
2.1
2.2
2.3
2.4
2.5
2.6
2.7
2.8
2.9
3.0
3.1
3.2
3.3
3.4
3.5
3.6
3.7
3.8
3.9
4.0
4.1
4.2
4.3
4.4
4.5
4.6
